<?xml version="1.0"?>
<VTKFile type="UnstructuredGrid" version="0.1" byte_order="LittleEndian">
    <UnstructuredGrid>
<Piece NumberOfPoints="108" NumberOfCells="176">
<Points>
<DataArray type="Float32" NumberOfComponents="3" format="ascii">
0.000000 0.000000 0.000000 0.272727 0.000000 0.000000 0.545455 0.000000 0.000000 0.818182 0.000000 0.000000 1.090909 0.000000 0.000000 1.363636 0.000000 0.000000 1.636364 0.000000 0.000000 1.909091 0.000000 0.000000 2.181818 0.000000 0.000000 2.454545 0.000000 0.000000 2.727273 0.000000 0.000000 3.000000 0.000000 0.000000 0.000000 0.125000 0.000000 0.272727 0.125000 0.000000 0.545455 0.125000 0.000000 0.818182 0.125000 0.000000 1.090909 0.125000 0.000000 1.363636 0.125000 0.000000 1.636364 0.125000 0.000000 1.909091 0.125000 0.000000 2.181818 0.125000 0.000000 2.454545 0.125000 0.000000 2.727273 0.125000 0.000000 3.000000 0.125000 0.000000 0.000000 0.250000 0.000000 0.272727 0.250000 0.000000 0.545455 0.250000 0.000000 0.818182 0.250000 0.000000 1.090909 0.250000 0.000000 1.363636 0.250000 0.000000 1.636364 0.250000 0.000000 1.909091 0.250000 0.000000 2.181818 0.250000 0.000000 2.454545 0.250000 0.000000 2.727273 0.250000 0.000000 3.000000 0.250000 0.000000 0.000000 0.375000 0.000000 0.272727 0.375000 0.000000 0.545455 0.375000 0.000000 0.818182 0.375000 0.000000 1.090909 0.375000 0.000000 1.363636 0.375000 0.000000 1.636364 0.375000 0.000000 1.909091 0.375000 0.000000 2.181818 0.375000 0.000000 2.454545 0.375000 0.000000 2.727273 0.375000 0.000000 3.000000 0.375000 0.000000 0.000000 0.500000 0.000000 0.272727 0.500000 0.000000 0.545455 0.500000 0.000000 0.818182 0.500000 0.000000 1.090909 0.500000 0.000000 1.363636 0.500000 0.000000 1.636364 0.500000 0.000000 1.909091 0.500000 0.000000 2.181818 0.500000 0.000000 2.454545 0.500000 0.000000 2.727273 0.500000 0.000000 3.000000 0.500000 0.000000 0.000000 0.625000 0.000000 0.272727 0.625000 0.000000 0.545455 0.625000 0.000000 0.818182 0.625000 0.000000 1.090909 0.625000 0.000000 1.363636 0.625000 0.000000 1.636364 0.625000 0.000000 1.909091 0.625000 0.000000 2.181818 0.625000 0.000000 2.454545 0.625000 0.000000 2.727273 0.625000 0.000000 3.000000 0.625000 0.000000 0.000000 0.750000 0.000000 0.272727 0.750000 0.000000 0.545455 0.750000 0.000000 0.818182 0.750000 0.000000 1.090909 0.750000 0.000000 1.363636 0.750000 0.000000 1.636364 0.750000 0.000000 1.909091 0.750000 0.000000 2.181818 0.750000 0.000000 2.454545 0.750000 0.000000 2.727273 0.750000 0.000000 3.000000 0.750000 0.000000 0.000000 0.875000 0.000000 0.272727 0.875000 0.000000 0.545455 0.875000 0.000000 0.818182 0.875000 0.000000 1.090909 0.875000 0.000000 1.363636 0.875000 0.000000 1.636364 0.875000 0.000000 1.909091 0.875000 0.000000 2.181818 0.875000 0.000000 2.454545 0.875000 0.000000 2.727273 0.875000 0.000000 3.000000 0.875000 0.000000 0.000000 1.000000 0.000000 0.272727 1.000000 0.000000 0.545455 1.000000 0.000000 0.818182 1.000000 0.000000 1.090909 1.000000 0.000000 1.363636 1.000000 0.000000 1.636364 1.000000 0.000000 1.909091 1.000000 0.000000 2.181818 1.000000 0.000000 2.454545 1.000000 0.000000 2.727273 1.000000 0.000000 3.000000 1.000000 0.000000 
</DataArray>
</Points>
<Cells>
<DataArray type="Int32" Name="connectivity" format="ascii">
0 1 12 1 13 12 1 2 13 2 14 13 2 3 14 3 15 14 3 4 15 4 16 15 4 5 16 5 17 16 5 6 17 6 18 17 6 7 18 7 19 18 7 8 19 8 20 19 8 9 20 9 21 20 9 10 21 10 22 21 10 11 22 11 23 22 12 13 24 13 25 24 13 14 25 14 26 25 14 15 26 15 27 26 15 16 27 16 28 27 16 17 28 17 29 28 17 18 29 18 30 29 18 19 30 19 31 30 19 20 31 20 32 31 20 21 32 21 33 32 21 22 33 22 34 33 22 23 34 23 35 34 24 25 36 25 37 36 25 26 37 26 38 37 26 27 38 27 39 38 27 28 39 28 40 39 28 29 40 29 41 40 29 30 41 30 42 41 30 31 42 31 43 42 31 32 43 32 44 43 32 33 44 33 45 44 33 34 45 34 46 45 34 35 46 35 47 46 36 37 48 37 49 48 37 38 49 38 50 49 38 39 50 39 51 50 39 40 51 40 52 51 40 41 52 41 53 52 41 42 53 42 54 53 42 43 54 43 55 54 43 44 55 44 56 55 44 45 56 45 57 56 45 46 57 46 58 57 46 47 58 47 59 58 48 49 60 49 61 60 49 50 61 50 62 61 50 51 62 51 63 62 51 52 63 52 64 63 52 53 64 53 65 64 53 54 65 54 66 65 54 55 66 55 67 66 55 56 67 56 68 67 56 57 68 57 69 68 57 58 69 58 70 69 58 59 70 59 71 70 60 61 72 61 73 72 61 62 73 62 74 73 62 63 74 63 75 74 63 64 75 64 76 75 64 65 76 65 77 76 65 66 77 66 78 77 66 67 78 67 79 78 67 68 79 68 80 79 68 69 80 69 81 80 69 70 81 70 82 81 70 71 82 71 83 82 72 73 84 73 85 84 73 74 85 74 86 85 74 75 86 75 87 86 75 76 87 76 88 87 76 77 88 77 89 88 77 78 89 78 90 89 78 79 90 79 91 90 79 80 91 80 92 91 80 81 92 81 93 92 81 82 93 82 94 93 82 83 94 83 95 94 84 85 96 85 97 96 85 86 97 86 98 97 86 87 98 87 99 98 87 88 99 88 100 99 88 89 100 89 101 100 89 90 101 90 102 101 90 91 102 91 103 102 91 92 103 92 104 103 92 93 104 93 105 104 93 94 105 94 106 105 94 95 106 95 107 106 
</DataArray>
<DataArray type="Int32" Name="offsets" format="ascii">
3 6 9 12 15 18 21 24 27 30 33 36 39 42 45 48 51 54 57 60 63 66 69 72 75 78 81 84 87 90 93 96 99 102 105 108 111 114 117 120 123 126 129 132 135 138 141 144 147 150 153 156 159 162 165 168 171 174 177 180 183 186 189 192 195 198 201 204 207 210 213 216 219 222 225 228 231 234 237 240 243 246 249 252 255 258 261 264 267 270 273 276 279 282 285 288 291 294 297 300 303 306 309 312 315 318 321 324 327 330 333 336 339 342 345 348 351 354 357 360 363 366 369 372 375 378 381 384 387 390 393 396 399 402 405 408 411 414 417 420 423 426 429 432 435 438 441 444 447 450 453 456 459 462 465 468 471 474 477 480 483 486 489 492 495 498 501 504 507 510 513 516 519 522 525 528 
</DataArray>
<DataArray type="UInt8" Name="types" format="ascii">
5 5 5 5 5 5 5 5 5 5 5 5 5 5 5 5 5 5 5 5 5 5 5 5 5 5 5 5 5 5 5 5 5 5 5 5 5 5 5 5 5 5 5 5 5 5 5 5 5 5 5 5 5 5 5 5 5 5 5 5 5 5 5 5 5 5 5 5 5 5 5 5 5 5 5 5 5 5 5 5 5 5 5 5 5 5 5 5 5 5 5 5 5 5 5 5 5 5 5 5 5 5 5 5 5 5 5 5 5 5 5 5 5 5 5 5 5 5 5 5 5 5 5 5 5 5 5 5 5 5 5 5 5 5 5 5 5 5 5 5 5 5 5 5 5 5 5 5 5 5 5 5 5 5 5 5 5 5 5 5 5 5 5 5 5 5 5 5 5 5 5 5 5 5 5 5 
</DataArray>
</Cells>
<PointData>
<DataArray type="Float32" Name="U " NumberOfComponents="2 " format="ascii">
0.000000 0.000000 0.002744 0.001635 0.005262 0.004313 0.007516 0.008241 0.009503 0.013319 0.011224 0.019407 0.012679 0.026362 0.013869 0.034040 0.014793 0.042297 0.015454 0.050987 0.015853 0.059968 0.015992 0.069108 0.000000 0.000000 0.001943 0.001354 0.003826 0.004033 0.005520 0.007991 0.007011 0.013100 0.008301 0.019221 0.009391 0.026208 0.010283 0.033918 0.010976 0.042206 0.011470 0.050928 0.011765 0.059941 0.011864 0.069104 0.000000 0.000000 0.001255 0.001173 0.002498 0.003839 0.003624 0.007814 0.004616 0.012946 0.005474 0.019090 0.006200 0.026100 0.006793 0.033832 0.007254 0.042143 0.007581 0.050888 0.007776 0.059923 0.007838 0.069106 0.000000 0.000000 0.000622 0.001071 0.001238 0.003726 0.001794 0.007712 0.002285 0.012857 0.002712 0.019013 0.003073 0.026037 0.003368 0.033783 0.003596 0.042108 0.003757 0.050867 0.003851 0.059915 0.003879 0.069110 0.000000 0.000000 0.000013 0.001037 0.000008 0.003693 -0.000004 0.007683 -0.000013 0.012832 -0.000018 0.018992 -0.000022 0.026020 -0.000026 0.033771 -0.000030 0.042100 -0.000034 0.050864 -0.000040 0.059916 -0.000046 0.069114 0.000000 0.000000 -0.000597 0.001068 -0.001227 0.003739 -0.001806 0.007728 -0.002312 0.012871 -0.002749 0.019026 -0.003117 0.026048 -0.003419 0.033794 -0.003655 0.042120 -0.003825 0.050879 -0.003930 0.059927 -0.003969 0.069117 0.000000 0.000000 -0.001239 0.001169 -0.002503 0.003867 -0.003644 0.007846 -0.004645 0.012974 -0.005511 0.019114 -0.006244 0.026122 -0.006844 0.033855 -0.007312 0.042166 -0.007648 0.050912 -0.007851 0.059947 -0.007922 0.069121 0.000000 0.000000 -0.001957 0.001360 -0.003859 0.004080 -0.005549 0.008035 -0.007042 0.013139 -0.008338 0.019256 -0.009435 0.026242 -0.010334 0.033951 -0.011034 0.042240 -0.011534 0.050963 -0.011835 0.059975 -0.011937 0.069127 0.000000 0.000000 -0.002854 0.001679 -0.005318 0.004368 -0.007550 0.008294 -0.009535 0.013367 -0.011260 0.019453 -0.012722 0.026407 -0.013920 0.034084 -0.014851 0.042341 -0.015517 0.051033 -0.015915 0.060013 -0.016046 0.069140 
</DataArray>
</PointData>
        </Piece>
    </UnstructuredGrid>
</VTKFile>
