<?xml version="1.0"?>
<VTKFile type="UnstructuredGrid" version="0.1" byte_order="LittleEndian">
    <UnstructuredGrid>
<Piece NumberOfPoints="25" NumberOfCells="32">
<Points>
<DataArray type="Float32" NumberOfComponents="3" format="ascii">
0.000000 0.000000 0.000000 0.750000 0.000000 0.000000 1.500000 0.000000 0.000000 2.250000 0.000000 0.000000 3.000000 0.000000 0.000000 0.000000 0.250000 0.000000 0.750000 0.250000 0.000000 1.500000 0.250000 0.000000 2.250000 0.250000 0.000000 3.000000 0.250000 0.000000 0.000000 0.500000 0.000000 0.750000 0.500000 0.000000 1.500000 0.500000 0.000000 2.250000 0.500000 0.000000 3.000000 0.500000 0.000000 0.000000 0.750000 0.000000 0.750000 0.750000 0.000000 1.500000 0.750000 0.000000 2.250000 0.750000 0.000000 3.000000 0.750000 0.000000 0.000000 1.000000 0.000000 0.750000 1.000000 0.000000 1.500000 1.000000 0.000000 2.250000 1.000000 0.000000 3.000000 1.000000 0.000000 
</DataArray>
</Points>
<Cells>
<DataArray type="Int32" Name="connectivity" format="ascii">
0 1 5 1 6 5 1 2 6 2 7 6 2 3 7 3 8 7 3 4 8 4 9 8 5 6 10 6 11 10 6 7 11 7 12 11 7 8 12 8 13 12 8 9 13 9 14 13 10 11 15 11 16 15 11 12 16 12 17 16 12 13 17 13 18 17 13 14 18 14 19 18 15 16 20 16 21 20 16 17 21 17 22 21 17 18 22 18 23 22 18 19 23 19 24 23 
</DataArray>
<DataArray type="Int32" Name="offsets" format="ascii">
3 6 9 12 15 18 21 24 27 30 33 36 39 42 45 48 51 54 57 60 63 66 69 72 75 78 81 84 87 90 93 96 
</DataArray>
<DataArray type="UInt8" Name="types" format="ascii">
5 5 5 5 5 5 5 5 5 5 5 5 5 5 5 5 5 5 5 5 5 5 5 5 5 5 5 5 5 5 5 5 
</DataArray>
</Cells>
<PointData>
<DataArray type="Float32" Name="U " NumberOfComponents="2 " format="ascii">
0.000000 0.000000 0.000000 0.000000 0.000000 0.000000 0.000000 0.000000 0.000000 0.000000 -0.000137 -0.000084 -0.000076 -0.000127 -0.000001 -0.000165 0.000073 -0.000134 0.000148 -0.000096 -0.000206 -0.000160 -0.000115 -0.000268 0.000003 -0.000346 0.000117 -0.000281 0.000210 -0.000174 -0.000220 -0.000228 -0.000113 -0.000416 0.000012 -0.000537 0.000122 -0.000431 0.000200 -0.000236 -0.000186 -0.000290 -0.000063 -0.000569 0.000027 -0.000731 0.000083 -0.000576 0.000114 -0.000285 
</DataArray>
</PointData>
        </Piece>
    </UnstructuredGrid>
</VTKFile>
