<?xml version="1.0"?>
<VTKFile type="UnstructuredGrid" version="0.1" byte_order="LittleEndian">
    <UnstructuredGrid>
<Piece NumberOfPoints="25" NumberOfCells="32">
<Points>
<DataArray type="Float32" NumberOfComponents="3" format="ascii">
0.000000 0.000000 0.000000 0.750000 0.000000 0.000000 1.500000 0.000000 0.000000 2.250000 0.000000 0.000000 3.000000 0.000000 0.000000 -0.068659 0.208144 0.000000 0.712075 0.186259 0.000000 1.499631 0.167560 0.000000 2.286627 0.183234 0.000000 3.074031 0.202029 0.000000 -0.103072 0.420176 0.000000 0.692676 0.366158 0.000000 1.501432 0.327101 0.000000 2.308274 0.359554 0.000000 3.104755 0.413066 0.000000 -0.110230 0.636022 0.000000 0.693315 0.542130 0.000000 1.505957 0.481546 0.000000 2.311009 0.534337 0.000000 3.099902 0.631772 0.000000 -0.093234 0.855036 0.000000 0.718352 0.715625 0.000000 1.513436 0.634696 0.000000 2.291593 0.711809 0.000000 3.057243 0.857673 0.000000 
</DataArray>
</Points>
<Cells>
<DataArray type="Int32" Name="connectivity" format="ascii">
0 1 5 1 6 5 1 2 6 2 7 6 2 3 7 3 8 7 3 4 8 4 9 8 5 6 10 6 11 10 6 7 11 7 12 11 7 8 12 8 13 12 8 9 13 9 14 13 10 11 15 11 16 15 11 12 16 12 17 16 12 13 17 13 18 17 13 14 18 14 19 18 15 16 20 16 21 20 16 17 21 17 22 21 17 18 22 18 23 22 18 19 23 19 24 23 
</DataArray>
<DataArray type="Int32" Name="offsets" format="ascii">
3 6 9 12 15 18 21 24 27 30 33 36 39 42 45 48 51 54 57 60 63 66 69 72 75 78 81 84 87 90 93 96 
</DataArray>
<DataArray type="UInt8" Name="types" format="ascii">
5 5 5 5 5 5 5 5 5 5 5 5 5 5 5 5 5 5 5 5 5 5 5 5 5 5 5 5 5 5 5 5 
</DataArray>
</Cells>
<PointData>
<DataArray type="Float32" Name="U " NumberOfComponents="2 " format="ascii">
0.000000 0.000000 0.750000 0.000000 1.500000 0.000000 2.250000 0.000000 3.000000 0.000000 -0.068659 0.208144 0.712075 0.186259 1.499631 0.167560 2.286627 0.183234 3.074031 0.202029 -0.103072 0.420176 0.692676 0.366158 1.501432 0.327101 2.308274 0.359554 3.104755 0.413066 -0.110230 0.636022 0.693315 0.542130 1.505957 0.481546 2.311009 0.534337 3.099902 0.631772 -0.093234 0.855036 0.718352 0.715625 1.513436 0.634696 2.291593 0.711809 3.057243 0.857673 
</DataArray>
</PointData>
        </Piece>
    </UnstructuredGrid>
</VTKFile>
